; NVT equilibration
define                  = -DPOSRES
integrator              = md
nsteps                  = 50000
dt                      = 0.002
nstxout-compressed      = 5000
nstenergy               = 5000
nstlog                  = 5000
nstcalcenergy           = 500
nstcomm                 = 500
continuation            = no
constraint_algorithm    = lincs
constraints             = h-bonds
lincs_iter              = 1
lincs_order             = 4
cutoff-scheme           = Verlet
verlet-buffer-tolerance = 0.002
nstlist                 = 400
rlist                   = 1.0
coulombtype             = PME
rcoulomb                = 1.0
fourierspacing          = 0.12
pme_order               = 4
vdwtype                 = Cut-off
rvdw                    = 1.0
DispCorr                = EnerPres
tcoupl                  = v-rescale
tc-grps                 = Protein_DNA Water_Ions
tau_t                   = 0.1 0.1
ref_t                   = 300 300
pcoupl                  = no
gen_vel                 = yes
gen_temp                = 300
gen_seed                = -1
pbc                     = xyz
comm-mode               = Linear
comm-grps               = Protein_DNA Water_Ions
